<VTKFile type="PolyData" version="0.1" byte_order="LittleEndian">
  <PolyData>
    <Piece NumberOfPoints="203" NumberOfVerts="0" NumberOfLines="3" NumberOfStrips="0" NumberOfPolys="0">
      <PointData>
      </PointData>
      <CellData Scalars="PolylineIDs">
        <DataArray type="Int32" Name="PolylineIDs" format="ascii" RangeMin="0" RangeMax="2">
          0 1 2
        </DataArray>
      </CellData>
      <Points>
        <DataArray type="Float32" Name="Points" NumberOfComponents="3" format="ascii" RangeMin="6410241.4924" RangeMax="6417444.4746">
          3489381.75 5382989.5 399.30999756 3489500 5382985.5 398.57000732
          3489597 5382982 398.29998779 3489689.25 5383081.5 398.29998779
          3489796.75 5383074 396.57000732 3489888 5382985 394.20999146
          3489990.5 5382885 391.47000122 3490093.25 5382785 391.45001221
          3490195.75 5382685 390.32000732 3490298.5 5382585 390.1000061
          3490400 5382486 390.1000061 3490405.5 5382385 389.04000854
          3490407.5 5382285 389 3490409.5 5382185 389
          3490411.25 5382090.5 388 3490300 5381993 387.45999146
          3490288.5 5381885 386.51000977 3490393.5 5381785 385.73999023
          3490500 5381768 385.73999023 3490600 5381686 385.02999878
          3490700 5381593.5 384.36999512 3490800 5381583.5 383.27999878
          3490900 5381583.5 382.04000854 3490990 5381685 382.04000854
          3491095.25 5381683.5 381.47000122 3491200 5381593.5 380.76000977
          3491300 5381486.5 379.83999634 3491408.75 5381385 379.83999634
          3491510 5381391.5 379.48001099 3491594.5 5381276 378.85998535
          3491696.25 5381385 378.6000061 3491740.5 5381385 378.6000061
          3491794.25 5381376 378.17001343 3491893 5381285 378.17001343
          3492000 5381193 378.02999878 3492100 5381191.5 377.79000854
          3492200 5381191.5 377.44000244 3492300 5381085.5 377.44000244
          3492400 5381084 377.44000244 3492500 5381084 377.44000244
          3492600 5381084 377.44000244 3492700 5381084 377
          3492800 5380977.5 377 3492700 5380890 376.04000854
          3492697.5 5380785 375.73001099 3492701 5380700 375.69000244
          3492792.75 5380585 375.69000244 3492701.25 5380485 374.94000244
          3492800 5380385.5 374.94000244 3492900 5380285.5 374.66000366
          3492993 5380185 374.66000366 3493000 5380139 374.66000366
          3493008.25 5380085 374.05999756 3493108.5 5379985 374.05999756
          3493200 5379893.5 374.05999756 3493308 5379785.5 374.05999756
          3493400 5379789.5 374.05999756 3493492.25 5379793.5 374.05999756
          3493593.25 5379685 374.05999756 3493693 5379585 374.05999756
          3493695.75 5379485 374.05999756 3493692 5379401.5 374.05999756
          3493600 5379271 374.05999756 3493599.75 5379185 372.79998779
          3493599.75 5379086.5 372.79998779 3493696.25 5378985 371.82000732
          3493791.25 5378885 371.82000732 3493886.25 5378785 371.82000732
          3493999.5 5378787 370.94000244 3494007 5378694.5 371.79998779
          3494100 5378594 367.89001465 3494191.5 5378495 367.89001465
          3494206.75 5378395 367.89001465 3494299 5378287.5 365.17999268
          3494306.75 5378195 365.88000488 3494400 5378195 364.33999634
          3494500 5378195 364.33999634 3494598.75 5378195 364.33999634
          3494700 5378094 364.33999634 3494794.25 5377985 362.63000488
          3494900 5377886 362.63000488 3495000 5377882.5 362.63000488
          3495094.5 5377885 362.63000488 3495200 5377887.5 362.63000488
          3495300 5377791 362.63000488 3495400 5377688.5 356.29000854
          3495497.5 5377588 356.29000854 3495600 5377587 356.29000854
          3495700 5377585.5 355.07000732 3495800 5377584.5 354.83999634
          3495900 5377583 354.04000854 3496000 5377582 353.79998779
          3496100 5377580.5 353.79998779 3496196.5 5377485 352.98999023
          3496292.5 5377385 351.42999268 3496388.75 5377285 351.42999268
          3496485 5377185 351.14001465 3496600 5377181 350.5
          3496711.5 5377181 349.75 3496800 5377085 348.6000061
          3496900 5377081 348.6000061 3497000 5377081 348.01000977
          3497099.75 5376985 347.76000977 3497199.75 5376885 347.36999512
          3497300 5376879.5 346.92999268 3497400 5376877.5 346.54000854
          3497500 5376876 346.25 3497585 5376874 346.01998901
          3497638.5 5376874 346.01998901 3497403 5380684.5 389.3999939
          3497500 5380595 389.07000732 3497387.75 5380477 384.5
          3497500 5380387 381.70999146 3497504.5 5380285 380.27999878
          3497506 5380185 379.80999756 3497507.5 5380085 377.07998657
          3497509.25 5379985 376.6000061 3497510.5 5379893 375.67001343
          3497595.25 5379785.5 374.35998535 3497501.75 5379685 374.35998535
          3497595.25 5379570.5 373.97000122 3497596.5 5379485 373.97000122
          3497598 5379385 372.95999146 3497599.75 5379285 372.72000122
          3497601.25 5379185 371.23001099 3497602.75 5379086.5 371.23001099
          3497501.5 5378985 371.23001099 3497500 5378919.5 368.79998779
          3497510.5 5378787 368.79998779 3497600 5378690 366.82998657
          3497605.5 5378585 365.73001099 3497608 5378485 364.86999512
          3497610.5 5378387.5 364.22000122 3497508.25 5378285 363.30999756
          3497408.25 5378185 362.1000061 3497410.75 5378095.5 361.70001221
          3497343.75 5378085 361.70001221 3497310.75 5378080 361.70001221
          3497211 5377995.5 360.29998779 3497162.5 5377985 360.29998779
          3497103.5 5377972.5 360.29998779 3497000 5377898.5 358.6000061
          3496911.25 5377895.5 358.6000061 3496800.75 5377785 358.48001099
          3496900 5377691 355.42999268 3497000 5377688 354.79000854
          3497100 5377688 354.54998779 3497199.25 5377585 354.54998779
          3497203.25 5377473 352.07000732 3497295.5 5377373 350.82000732
          3497297 5377285 350.1000061 3497299 5377185 349.48001099
          3497300.75 5377085 348.29998779 3497302.75 5376985 347.32000732
          3497303.25 5376958 347.32000732 3497300 5376879.5 346.92999268
          3489881.25 5376981 421.27999878 3490000 5377079.5 420.76000977
          3490100 5377162.5 419.76998901 3490096.5 5377285 419.76998901
          3490196.25 5377381 419.76998901 3490288.5 5377273 419.76998901
          3490400 5377273 419.76998901 3490519 5377273 418.35998535
          3490600 5377369 415.95001221 3490711 5377373 412.17999268
          3490795.5 5377480.5 412.17999268 3490900 5377480.5 412.17999268
          3491000 5377480.5 412.17999268 3491100 5377480.5 408
          3491200 5377480.5 407.8500061 3491318 5377480.5 407.8500061
          3491400 5377577.5 405.39001465 3491494.75 5377588 405.39001465
          3491600 5377678.5 405.39001465 3491692 5377785 405.39001465
          3491702 5377895.5 405.39001465 3491800 5377891.5 405.39001465
          3491894.25 5377888 405.39001465 3491998.75 5377985 405.39001465
          3492100 5377990.5 405.11999512 3492200 5377993 405.11999512
          3492293.75 5377995.5 405.11999512 3492400 5378080.5 405.11999512
          3492500 5378087.5 397.98999023 3492600 5378087.5 397.98999023
          3492698.5 5378185 388.35998535 3492793.25 5378087.5 388.35998535
          3492900 5378090.5 387.41000366 3493000 5378093 386.89001465
          3493100 5378095.5 386.89001465 3493197.75 5378185 381.33999634
          3493308 5378295 381.33999634 3493400 5378293.5 376.22000122
          3493500 5378292 375.1499939 3493600 5378290.5 375.1499939
          3493700 5378289 375.1499939 3493792 5378287.5 372.23001099
          3493891.75 5378187.5 370.67999268 3493999.5 5378087.5 369.85998535
          3494100 5378087.5 367.32998657 3494200 5378087.5 367.32998657
          3494306.75 5378195 365.88000488
        </DataArray>
      </Points>
      <Verts>
        <DataArray type="Int64" Name="connectivity" format="ascii" RangeMin="1e+299" RangeMax="-1e+299">
        </DataArray>
        <DataArray type="Int64" Name="offsets" format="ascii" RangeMin="1e+299" RangeMax="-1e+299">
        </DataArray>
      </Verts>
      <Lines>
        <DataArray type="Int64" Name="connectivity" format="ascii" RangeMin="0" RangeMax="202">
          0 1 2 3 4 5
          6 7 8 9 10 11
          12 13 14 15 16 17
          18 19 20 21 22 23
          24 25 26 27 28 29
          30 31 32 33 34 35
          36 37 38 39 40 41
          42 43 44 45 46 47
          48 49 50 51 52 53
          54 55 56 57 58 59
          60 61 62 63 64 65
          66 67 68 69 70 71
          72 73 74 75 76 77
          78 79 80 81 82 83
          84 85 86 87 88 89
          90 91 92 93 94 95
          96 97 98 99 100 101
          102 103 104 105 106 107
          108 109 110 111 112 113
          114 115 116 117 118 119
          120 121 122 123 124 125
          126 127 128 129 130 131
          132 133 134 135 136 137
          138 139 140 141 142 143
          144 145 146 147 148 149
          150 151 152 153 154 155
          156 157 158 159 160 161
          162 163 164 165 166 167
          168 169 170 171 172 173
          174 175 176 177 178 179
          180 181 182 183 184 185
          186 187 188 189 190 191
          192 193 194 195 196 197
          198 199 200 201 202
        </DataArray>
        <DataArray type="Int64" Name="offsets" format="ascii" RangeMin="109" RangeMax="203">
          109 156 203
        </DataArray>
      </Lines>
      <Strips>
        <DataArray type="Int64" Name="connectivity" format="ascii" RangeMin="0" RangeMax="202">
        </DataArray>
        <DataArray type="Int64" Name="offsets" format="ascii" RangeMin="109" RangeMax="203">
        </DataArray>
      </Strips>
      <Polys>
        <DataArray type="Int64" Name="connectivity" format="ascii" RangeMin="0" RangeMax="202">
        </DataArray>
        <DataArray type="Int64" Name="offsets" format="ascii" RangeMin="109" RangeMax="203">
        </DataArray>
      </Polys>
    </Piece>
  </PolyData>
</VTKFile>
